MODEL 1
REMARK VINA RESULT:      -6.7      0.000      0.000
REMARK SMILES NC1NC(O)CC(CCC2CCCCC2)N1
REMARK SMILES IDX 3 1 2 2 4 3 6 4 7 5 16 6 1 9 5 12 8 14 9 15 10 16 11 17
REMARK SMILES IDX 15 18 12 19 14 20 13 21
REMARK H PARENT 3 7 16 8 1 10 1 11 5 13
ROOT
ATOM      1  N   UNL     1      -0.688   9.093   7.731  1.00  0.00    -0.264 NA
ATOM      2  C   UNL     1       0.479   8.971   8.439  1.00  0.00     0.192 C 
ATOM      3  C   UNL     1      -1.674   8.170   7.914  1.00  0.00     0.186 C 
ATOM      4  C   UNL     1      -1.462   7.086   8.803  1.00  0.00     0.067 C 
ATOM      5  C   UNL     1      -0.263   7.010   9.471  1.00  0.00     0.060 C 
ATOM      6  N   UNL     1       0.653   7.972   9.275  1.00  0.00    -0.287 NA
ATOM      7  H   UNL     1      -1.088  10.013   7.965  1.00  0.00     0.128 HD
ATOM      8  H   UNL     1       1.509   7.490   8.966  1.00  0.00     0.125 HD
ENDROOT
BRANCH   2   9
ATOM      9  N   UNL     1       1.471   9.920   8.324  1.00  0.00    -0.304 NA
ATOM     10  H   UNL     1       2.361   9.529   8.666  1.00  0.00     0.121 HD
ATOM     11  H   UNL     1       1.573  10.193   7.337  1.00  0.00     0.121 HD
ENDBRANCH   2   9
BRANCH   3  12
ATOM     12  O   UNL     1      -2.734   8.275   7.311  1.00  0.00    -0.378 OA
ATOM     13  H   UNL     1      -3.456   7.846   7.835  1.00  0.00     0.212 HD
ENDBRANCH   3  12
BRANCH   5  14
ATOM     14  C   UNL     1       0.095   5.914  10.444  1.00  0.00     0.019 C 
BRANCH  14  15
ATOM     15  C   UNL     1       0.070   4.458   9.948  1.00  0.00     0.005 C 
BRANCH  15  16
ATOM     16  C   UNL     1      -1.030   3.670  10.612  1.00  0.00    -0.011 C 
ATOM     17  C   UNL     1      -2.377   3.967  10.406  1.00  0.00     0.003 C 
ATOM     18  C   UNL     1      -0.676   2.606  11.437  1.00  0.00     0.003 C 
ATOM     19  C   UNL     1      -3.363   3.229  11.041  1.00  0.00     0.000 C 
ATOM     20  C   UNL     1      -1.663   1.861  12.071  1.00  0.00     0.000 C 
ATOM     21  C   UNL     1      -3.003   2.171  11.871  1.00  0.00     0.000 C 
ENDBRANCH  15  16
ENDBRANCH  14  15
ENDBRANCH   5  14
TORSDOF 5
ENDMDL
MODEL 2
REMARK VINA RESULT:      -6.7      1.913      2.983
REMARK SMILES NC1NC(O)CC(CCC2CCCCC2)N1
REMARK SMILES IDX 3 1 2 2 4 3 6 4 7 5 16 6 1 9 5 12 8 14 9 15 10 16 11 17
REMARK SMILES IDX 15 18 12 19 14 20 13 21
REMARK H PARENT 3 7 16 8 1 10 1 11 5 13
ROOT
ATOM      1  N   UNL     1      -0.417   6.756   9.298  1.00  0.00    -0.264 NA
ATOM      2  C   UNL     1       0.619   6.085   9.893  1.00  0.00     0.192 C 
ATOM      3  C   UNL     1      -1.622   6.131   9.165  1.00  0.00     0.186 C 
ATOM      4  C   UNL     1      -1.769   4.792   9.609  1.00  0.00     0.067 C 
ATOM      5  C   UNL     1      -0.686   4.168  10.182  1.00  0.00     0.060 C 
ATOM      6  N   UNL     1       0.461   4.851  10.319  1.00  0.00    -0.287 NA
ATOM      7  H   UNL     1      -0.580   7.610   9.850  1.00  0.00     0.128 HD
ATOM      8  H   UNL     1       1.183   4.293   9.842  1.00  0.00     0.125 HD
ENDROOT
BRANCH   2   9
ATOM      9  N   UNL     1       1.831   6.707  10.100  1.00  0.00    -0.304 NA
ATOM     10  H   UNL     1       2.393   6.154  10.763  1.00  0.00     0.121 HD
ATOM     11  H   UNL     1       2.334   6.785   9.205  1.00  0.00     0.121 HD
ENDBRANCH   2   9
BRANCH   3  12
ATOM     12  O   UNL     1      -2.568   6.721   8.660  1.00  0.00    -0.378 OA
ATOM     13  H   UNL     1      -2.231   7.469   8.105  1.00  0.00     0.212 HD
ENDBRANCH   3  12
BRANCH   5  14
ATOM     14  C   UNL     1      -0.703   2.750  10.698  1.00  0.00     0.019 C 
BRANCH  14  15
ATOM     15  C   UNL     1      -1.641   2.409  11.868  1.00  0.00     0.005 C 
BRANCH  15  16
ATOM     16  C   UNL     1      -2.819   1.589  11.407  1.00  0.00    -0.011 C 
ATOM     17  C   UNL     1      -4.083   2.150  11.226  1.00  0.00     0.003 C 
ATOM     18  C   UNL     1      -2.620   0.237  11.140  1.00  0.00     0.003 C 
ATOM     19  C   UNL     1      -5.147   1.365  10.812  1.00  0.00     0.000 C 
ATOM     20  C   UNL     1      -3.684  -0.552  10.720  1.00  0.00     0.000 C 
ATOM     21  C   UNL     1      -4.943   0.012  10.555  1.00  0.00     0.000 C 
ENDBRANCH  15  16
ENDBRANCH  14  15
ENDBRANCH   5  14
TORSDOF 5
ENDMDL
MODEL 3
REMARK VINA RESULT:      -6.7      2.417      3.423
REMARK SMILES NC1NC(O)CC(CCC2CCCCC2)N1
REMARK SMILES IDX 3 1 2 2 4 3 6 4 7 5 16 6 1 9 5 12 8 14 9 15 10 16 11 17
REMARK SMILES IDX 15 18 12 19 14 20 13 21
REMARK H PARENT 3 7 16 8 1 10 1 11 5 13
ROOT
ATOM      1  N   UNL     1       0.267   6.751   9.073  1.00  0.00    -0.264 NA
ATOM      2  C   UNL     1      -1.089   6.890   8.932  1.00  0.00     0.192 C 
ATOM      3  C   UNL     1       0.758   5.655   9.719  1.00  0.00     0.186 C 
ATOM      4  C   UNL     1      -0.141   4.702  10.262  1.00  0.00     0.067 C 
ATOM      5  C   UNL     1      -1.491   4.907  10.102  1.00  0.00     0.060 C 
ATOM      6  N   UNL     1      -1.909   5.987   9.422  1.00  0.00    -0.287 NA
ATOM      7  H   UNL     1       0.671   6.749   8.125  1.00  0.00     0.128 HD
ATOM      8  H   UNL     1      -2.542   6.494  10.057  1.00  0.00     0.125 HD
ENDROOT
BRANCH   2   9
ATOM      9  N   UNL     1      -1.616   7.953   8.232  1.00  0.00    -0.304 NA
ATOM     10  H   UNL     1      -0.988   8.766   8.317  1.00  0.00     0.121 HD
ATOM     11  H   UNL     1      -1.711   7.697   7.239  1.00  0.00     0.121 HD
ENDBRANCH   2   9
BRANCH   3  12
ATOM     12  O   UNL     1       1.967   5.499   9.834  1.00  0.00    -0.378 OA
ATOM     13  H   UNL     1       2.439   6.239   9.375  1.00  0.00     0.212 HD
ENDBRANCH   3  12
BRANCH   5  14
ATOM     14  C   UNL     1      -2.556   3.975  10.626  1.00  0.00     0.019 C 
BRANCH  14  15
ATOM     15  C   UNL     1      -2.115   2.736  11.423  1.00  0.00     0.005 C 
BRANCH  15  16
ATOM     16  C   UNL     1      -3.039   1.570  11.181  1.00  0.00    -0.011 C 
ATOM     17  C   UNL     1      -4.397   1.747  10.921  1.00  0.00     0.003 C 
ATOM     18  C   UNL     1      -2.502   0.285  11.204  1.00  0.00     0.003 C 
ATOM     19  C   UNL     1      -5.221   0.652  10.715  1.00  0.00     0.000 C 
ATOM     20  C   UNL     1      -3.325  -0.815  10.992  1.00  0.00     0.000 C 
ATOM     21  C   UNL     1      -4.679  -0.631  10.746  1.00  0.00     0.000 C 
ENDBRANCH  15  16
ENDBRANCH  14  15
ENDBRANCH   5  14
TORSDOF 5
ENDMDL
MODEL 4
REMARK VINA RESULT:      -6.6      1.433      2.021
REMARK SMILES NC1NC(O)CC(CCC2CCCCC2)N1
REMARK SMILES IDX 3 1 2 2 4 3 6 4 7 5 16 6 1 9 5 12 8 14 9 15 10 16 11 17
REMARK SMILES IDX 15 18 12 19 14 20 13 21
REMARK H PARENT 3 7 16 8 1 10 1 11 5 13
ROOT
ATOM      1  N   UNL     1      -0.556   9.134   7.854  1.00  0.00    -0.264 NA
ATOM      2  C   UNL     1      -1.444   8.118   8.094  1.00  0.00     0.192 C 
ATOM      3  C   UNL     1       0.659   9.113   8.471  1.00  0.00     0.186 C 
ATOM      4  C   UNL     1       0.967   8.065   9.376  1.00  0.00     0.067 C 
ATOM      5  C   UNL     1       0.027   7.084   9.588  1.00  0.00     0.060 C 
ATOM      6  N   UNL     1      -1.136   7.141   8.918  1.00  0.00    -0.287 NA
ATOM      7  H   UNL     1      -0.379   9.146   6.839  1.00  0.00     0.128 HD
ATOM      8  H   UNL     1      -1.876   7.132   9.635  1.00  0.00     0.125 HD
ENDROOT
BRANCH   2   9
ATOM      9  N   UNL     1      -2.655   8.075   7.439  1.00  0.00    -0.304 NA
ATOM     10  H   UNL     1      -2.905   9.021   7.117  1.00  0.00     0.121 HD
ATOM     11  H   UNL     1      -2.586   7.443   6.629  1.00  0.00     0.121 HD
ENDBRANCH   2   9
BRANCH   3  12
ATOM     12  O   UNL     1       1.476   9.998   8.250  1.00  0.00    -0.378 OA
ATOM     13  H   UNL     1       1.043  10.882   8.359  1.00  0.00     0.212 HD
ENDBRANCH   3  12
BRANCH   5  14
ATOM     14  C   UNL     1       0.222   5.913  10.519  1.00  0.00     0.019 C 
BRANCH  14  15
ATOM     15  C   UNL     1       0.123   4.493   9.937  1.00  0.00     0.005 C 
BRANCH  15  16
ATOM     16  C   UNL     1      -0.984   3.707  10.591  1.00  0.00    -0.011 C 
ATOM     17  C   UNL     1      -2.328   4.014  10.383  1.00  0.00     0.003 C 
ATOM     18  C   UNL     1      -0.640   2.635  11.410  1.00  0.00     0.003 C 
ATOM     19  C   UNL     1      -3.321   3.278  11.009  1.00  0.00     0.000 C 
ATOM     20  C   UNL     1      -1.634   1.892  12.036  1.00  0.00     0.000 C 
ATOM     21  C   UNL     1      -2.971   2.212  11.833  1.00  0.00     0.000 C 
ENDBRANCH  15  16
ENDBRANCH  14  15
ENDBRANCH   5  14
TORSDOF 5
ENDMDL
MODEL 5
REMARK VINA RESULT:      -6.5      2.318      3.035
REMARK SMILES NC1NC(O)CC(CCC2CCCCC2)N1
REMARK SMILES IDX 3 1 2 2 4 3 6 4 7 5 16 6 1 9 5 12 8 14 9 15 10 16 11 17
REMARK SMILES IDX 15 18 12 19 14 20 13 21
REMARK H PARENT 3 7 16 8 1 10 1 11 5 13
ROOT
ATOM      1  N   UNL     1       2.369   9.222  10.653  1.00  0.00    -0.264 NA
ATOM      2  C   UNL     1       1.813   8.974   9.425  1.00  0.00     0.192 C 
ATOM      3  C   UNL     1       2.066   8.398  11.696  1.00  0.00     0.186 C 
ATOM      4  C   UNL     1       1.157   7.327  11.501  1.00  0.00     0.067 C 
ATOM      5  C   UNL     1       0.619   7.142  10.250  1.00  0.00     0.060 C 
ATOM      6  N   UNL     1       0.989   7.965   9.255  1.00  0.00    -0.287 NA
ATOM      7  H   UNL     1       3.392   9.192  10.533  1.00  0.00     0.128 HD
ATOM      8  H   UNL     1       0.118   8.370   8.884  1.00  0.00     0.125 HD
ENDROOT
BRANCH   2   9
ATOM      9  N   UNL     1       2.146   9.749   8.336  1.00  0.00    -0.304 NA
ATOM     10  H   UNL     1       2.520  10.654   8.659  1.00  0.00     0.121 HD
ATOM     11  H   UNL     1       2.861   9.264   7.775  1.00  0.00     0.121 HD
ENDBRANCH   2   9
BRANCH   3  12
ATOM     12  O   UNL     1       2.571   8.586  12.796  1.00  0.00    -0.378 OA
ATOM     13  H   UNL     1       3.226   7.868  12.985  1.00  0.00     0.212 HD
ENDBRANCH   3  12
BRANCH   5  14
ATOM     14  C   UNL     1      -0.356   6.045   9.902  1.00  0.00     0.019 C 
BRANCH  14  15
ATOM     15  C   UNL     1       0.106   4.585  10.042  1.00  0.00     0.005 C 
BRANCH  15  16
ATOM     16  C   UNL     1      -0.971   3.723  10.652  1.00  0.00    -0.011 C 
ATOM     17  C   UNL     1      -0.668   2.625  11.456  1.00  0.00     0.003 C 
ATOM     18  C   UNL     1      -2.300   4.058  10.411  1.00  0.00     0.003 C 
ATOM     19  C   UNL     1      -1.683   1.848  11.992  1.00  0.00     0.000 C 
ATOM     20  C   UNL     1      -3.320   3.283  10.952  1.00  0.00     0.000 C 
ATOM     21  C   UNL     1      -3.011   2.183  11.741  1.00  0.00     0.000 C 
ENDBRANCH  15  16
ENDBRANCH  14  15
ENDBRANCH   5  14
TORSDOF 5
ENDMDL
MODEL 6
REMARK VINA RESULT:      -6.5      2.326      2.890
REMARK SMILES NC1NC(O)CC(CCC2CCCCC2)N1
REMARK SMILES IDX 3 1 2 2 4 3 6 4 7 5 16 6 1 9 5 12 8 14 9 15 10 16 11 17
REMARK SMILES IDX 15 18 12 19 14 20 13 21
REMARK H PARENT 3 7 16 8 1 10 1 11 5 13
ROOT
ATOM      1  N   UNL     1      -3.432   6.839   5.429  1.00  0.00    -0.264 NA
ATOM      2  C   UNL     1      -2.962   7.866   6.205  1.00  0.00     0.192 C 
ATOM      3  C   UNL     1      -3.435   5.573   5.935  1.00  0.00     0.186 C 
ATOM      4  C   UNL     1      -2.919   5.338   7.235  1.00  0.00     0.067 C 
ATOM      5  C   UNL     1      -2.446   6.408   7.957  1.00  0.00     0.060 C 
ATOM      6  N   UNL     1      -2.508   7.636   7.417  1.00  0.00    -0.287 NA
ATOM      7  H   UNL     1      -4.407   7.068   5.184  1.00  0.00     0.128 HD
ATOM      8  H   UNL     1      -1.544   8.000   7.432  1.00  0.00     0.125 HD
ENDROOT
BRANCH   2   9
ATOM      9  N   UNL     1      -3.003   9.165   5.749  1.00  0.00    -0.304 NA
ATOM     10  H   UNL     1      -3.423   9.186   4.808  1.00  0.00     0.121 HD
ATOM     11  H   UNL     1      -3.571   9.737   6.391  1.00  0.00     0.121 HD
ENDBRANCH   2   9
BRANCH   3  12
ATOM     12  O   UNL     1      -3.874   4.645   5.268  1.00  0.00    -0.378 OA
ATOM     13  H   UNL     1      -4.082   3.881   5.862  1.00  0.00     0.212 HD
ENDBRANCH   3  12
BRANCH   5  14
ATOM     14  C   UNL     1      -1.873   6.302   9.349  1.00  0.00     0.019 C 
BRANCH  14  15
ATOM     15  C   UNL     1      -0.798   5.235   9.618  1.00  0.00     0.005 C 
BRANCH  15  16
ATOM     16  C   UNL     1      -1.347   4.096  10.438  1.00  0.00    -0.011 C 
ATOM     17  C   UNL     1      -2.711   3.960  10.690  1.00  0.00     0.003 C 
ATOM     18  C   UNL     1      -0.455   3.150  10.936  1.00  0.00     0.003 C 
ATOM     19  C   UNL     1      -3.181   2.907  11.458  1.00  0.00     0.000 C 
ATOM     20  C   UNL     1      -0.924   2.090  11.703  1.00  0.00     0.000 C 
ATOM     21  C   UNL     1      -2.283   1.968  11.960  1.00  0.00     0.000 C 
ENDBRANCH  15  16
ENDBRANCH  14  15
ENDBRANCH   5  14
TORSDOF 5
ENDMDL
MODEL 7
REMARK VINA RESULT:      -6.3      5.405      7.391
REMARK SMILES NC1NC(O)CC(CCC2CCCCC2)N1
REMARK SMILES IDX 3 1 2 2 4 3 6 4 7 5 16 6 1 9 5 12 8 14 9 15 10 16 11 17
REMARK SMILES IDX 15 18 12 19 14 20 13 21
REMARK H PARENT 3 7 16 8 1 10 1 11 5 13
ROOT
ATOM      1  N   UNL     1      -5.832  -0.442   8.631  1.00  0.00    -0.264 NA
ATOM      2  C   UNL     1      -4.658   0.084   8.158  1.00  0.00     0.192 C 
ATOM      3  C   UNL     1      -5.938  -0.742   9.957  1.00  0.00     0.186 C 
ATOM      4  C   UNL     1      -4.824  -0.541  10.811  1.00  0.00     0.067 C 
ATOM      5  C   UNL     1      -3.669  -0.026  10.273  1.00  0.00     0.060 C 
ATOM      6  N   UNL     1      -3.642   0.285   8.967  1.00  0.00    -0.287 NA
ATOM      7  H   UNL     1      -6.576   0.238   8.416  1.00  0.00     0.128 HD
ATOM      8  H   UNL     1      -2.853  -0.242   8.566  1.00  0.00     0.125 HD
ENDROOT
BRANCH   2   9
ATOM      9  N   UNL     1      -4.538   0.456   6.837  1.00  0.00    -0.304 NA
ATOM     10  H   UNL     1      -4.110  -0.312   6.301  1.00  0.00     0.121 HD
ATOM     11  H   UNL     1      -5.471   0.664   6.453  1.00  0.00     0.121 HD
ENDBRANCH   2   9
BRANCH   3  12
ATOM     12  O   UNL     1      -6.987  -1.189  10.404  1.00  0.00    -0.378 OA
ATOM     13  H   UNL     1      -7.651  -1.264   9.674  1.00  0.00     0.212 HD
ENDBRANCH   3  12
BRANCH   5  14
ATOM     14  C   UNL     1      -2.412   0.240  11.065  1.00  0.00     0.019 C 
BRANCH  14  15
ATOM     15  C   UNL     1      -2.374   1.473  11.982  1.00  0.00     0.005 C 
BRANCH  15  16
ATOM     16  C   UNL     1      -1.933   2.704  11.231  1.00  0.00    -0.011 C 
ATOM     17  C   UNL     1      -2.848   3.631  10.734  1.00  0.00     0.003 C 
ATOM     18  C   UNL     1      -0.569   2.916  11.053  1.00  0.00     0.003 C 
ATOM     19  C   UNL     1      -2.409   4.746  10.038  1.00  0.00     0.000 C 
ATOM     20  C   UNL     1      -0.125   4.036  10.360  1.00  0.00     0.000 C 
ATOM     21  C   UNL     1      -1.044   4.949   9.856  1.00  0.00     0.000 C 
ENDBRANCH  15  16
ENDBRANCH  14  15
ENDBRANCH   5  14
TORSDOF 5
ENDMDL
MODEL 8
REMARK VINA RESULT:      -6.3      1.698      2.621
REMARK SMILES NC1NC(O)CC(CCC2CCCCC2)N1
REMARK SMILES IDX 3 1 2 2 4 3 6 4 7 5 16 6 1 9 5 12 8 14 9 15 10 16 11 17
REMARK SMILES IDX 15 18 12 19 14 20 13 21
REMARK H PARENT 3 7 16 8 1 10 1 11 5 13
ROOT
ATOM      1  N   UNL     1       1.657   7.963   9.830  1.00  0.00    -0.264 NA
ATOM      2  C   UNL     1       1.214   6.994  10.692  1.00  0.00     0.192 C 
ATOM      3  C   UNL     1       0.830   8.392   8.835  1.00  0.00     0.186 C 
ATOM      4  C   UNL     1      -0.453   7.805   8.688  1.00  0.00     0.067 C 
ATOM      5  C   UNL     1      -0.831   6.825   9.574  1.00  0.00     0.060 C 
ATOM      6  N   UNL     1       0.015   6.474  10.556  1.00  0.00    -0.287 NA
ATOM      7  H   UNL     1       1.896   8.787  10.400  1.00  0.00     0.128 HD
ATOM      8  H   UNL     1       0.155   5.458  10.459  1.00  0.00     0.125 HD
ENDROOT
BRANCH   2   9
ATOM      9  N   UNL     1       2.000   6.581  11.746  1.00  0.00    -0.304 NA
ATOM     10  H   UNL     1       2.277   5.599  11.603  1.00  0.00     0.121 HD
ATOM     11  H   UNL     1       2.842   7.171  11.798  1.00  0.00     0.121 HD
ENDBRANCH   2   9
BRANCH   3  12
ATOM     12  O   UNL     1       1.196   9.276   8.069  1.00  0.00    -0.378 OA
ATOM     13  H   UNL     1       0.733  10.121   8.295  1.00  0.00     0.212 HD
ENDBRANCH   3  12
BRANCH   5  14
ATOM     14  C   UNL     1      -2.164   6.118   9.535  1.00  0.00     0.019 C 
BRANCH  14  15
ATOM     15  C   UNL     1      -2.207   4.666   9.031  1.00  0.00     0.005 C 
BRANCH  15  16
ATOM     16  C   UNL     1      -2.067   3.685  10.167  1.00  0.00    -0.011 C 
ATOM     17  C   UNL     1      -0.830   3.165  10.544  1.00  0.00     0.003 C 
ATOM     18  C   UNL     1      -3.214   3.312  10.863  1.00  0.00     0.003 C 
ATOM     19  C   UNL     1      -0.739   2.256  11.586  1.00  0.00     0.000 C 
ATOM     20  C   UNL     1      -3.125   2.405  11.912  1.00  0.00     0.000 C 
ATOM     21  C   UNL     1      -1.890   1.881  12.273  1.00  0.00     0.000 C 
ENDBRANCH  15  16
ENDBRANCH  14  15
ENDBRANCH   5  14
TORSDOF 5
ENDMDL
MODEL 9
REMARK VINA RESULT:      -5.9      6.881      8.881
REMARK SMILES NC1NC(O)CC(CCC2CCCCC2)N1
REMARK SMILES IDX 3 1 2 2 4 3 6 4 7 5 16 6 1 9 5 12 8 14 9 15 10 16 11 17
REMARK SMILES IDX 15 18 12 19 14 20 13 21
REMARK H PARENT 3 7 16 8 1 10 1 11 5 13
ROOT
ATOM      1  N   UNL     1      -8.241  -1.107   7.934  1.00  0.00    -0.264 NA
ATOM      2  C   UNL     1      -6.904  -1.185   7.641  1.00  0.00     0.192 C 
ATOM      3  C   UNL     1      -8.627  -0.943   9.231  1.00  0.00     0.186 C 
ATOM      4  C   UNL     1      -7.645  -0.895  10.253  1.00  0.00     0.067 C 
ATOM      5  C   UNL     1      -6.321  -0.997   9.897  1.00  0.00     0.060 C 
ATOM      6  N   UNL     1      -6.005  -1.117   8.597  1.00  0.00    -0.287 NA
ATOM      7  H   UNL     1      -8.619  -0.308   7.404  1.00  0.00     0.128 HD
ATOM      8  H   UNL     1      -5.444  -1.978   8.521  1.00  0.00     0.125 HD
ENDROOT
BRANCH   2   9
ATOM      9  N   UNL     1      -6.477  -1.288   6.336  1.00  0.00    -0.304 NA
ATOM     10  H   UNL     1      -5.748  -2.013   6.269  1.00  0.00     0.121 HD
ATOM     11  H   UNL     1      -7.272  -1.543   5.733  1.00  0.00     0.121 HD
ENDBRANCH   2   9
BRANCH   3  12
ATOM     12  O   UNL     1      -9.815  -0.845   9.511  1.00  0.00    -0.378 OA
ATOM     13  H   UNL     1     -10.135   0.061   9.276  1.00  0.00     0.212 HD
ENDBRANCH   3  12
BRANCH   5  14
ATOM     14  C   UNL     1      -5.176  -0.959  10.879  1.00  0.00     0.019 C 
BRANCH  14  15
ATOM     15  C   UNL     1      -3.758  -0.711  10.337  1.00  0.00     0.005 C 
BRANCH  15  16
ATOM     16  C   UNL     1      -3.282   0.683  10.660  1.00  0.00    -0.011 C 
ATOM     17  C   UNL     1      -3.744   1.799   9.964  1.00  0.00     0.003 C 
ATOM     18  C   UNL     1      -2.370   0.846  11.699  1.00  0.00     0.003 C 
ATOM     19  C   UNL     1      -3.277   3.065  10.279  1.00  0.00     0.000 C 
ATOM     20  C   UNL     1      -1.904   2.115  12.021  1.00  0.00     0.000 C 
ATOM     21  C   UNL     1      -2.358   3.221  11.314  1.00  0.00     0.000 C 
ENDBRANCH  15  16
ENDBRANCH  14  15
ENDBRANCH   5  14
TORSDOF 5
ENDMDL
