REMARK SMILES NC1NC(O)CC(CCC2CCCCC2)N1
REMARK SMILES IDX 3 1 2 2 4 3 6 4 7 5 16 6 1 9 5 12 8 14 9 15 10 16 11 17
REMARK SMILES IDX 15 18 12 19 14 20 13 21
REMARK H PARENT 3 7 16 8 1 10 1 11 5 13
ROOT
ATOM      1  N   UNL     1      -0.185   5.816   9.030  1.00  0.00    -0.264 NA
ATOM      2  C   UNL     1       0.763   4.906   9.419  1.00  0.00     0.192 C 
ATOM      3  C   UNL     1      -1.459   5.687   9.498  1.00  0.00     0.186 C 
ATOM      4  C   UNL     1      -1.787   4.598  10.345  1.00  0.00     0.067 C 
ATOM      5  C   UNL     1      -0.795   3.709  10.685  1.00  0.00     0.060 C 
ATOM      6  N   UNL     1       0.449   3.914  10.222  1.00  0.00    -0.287 NA
ATOM      7  H   UNL     1       0.151   6.745   9.322  1.00  0.00     0.128 HD
ATOM      8  H   UNL     1       0.711   3.052   9.723  1.00  0.00     0.125 HD
ENDROOT
BRANCH   2   9
ATOM      9  N   UNL     1       2.073   5.042   9.015  1.00  0.00    -0.304 NA
ATOM     10  H   UNL     1       2.683   5.105   9.843  1.00  0.00     0.121 HD
ATOM     11  H   UNL     1       2.345   4.225   8.450  1.00  0.00     0.121 HD
ENDBRANCH   2   9
BRANCH   3  12
ATOM     12  O   UNL     1      -2.315   6.504   9.183  1.00  0.00    -0.378 OA
ATOM     13  H   UNL     1      -2.719   6.890  10.000  1.00  0.00     0.212 HD
ENDBRANCH   3  12
BRANCH   5  14
ATOM     14  C   UNL     1      -1.003   2.510  11.577  1.00  0.00     0.019 C 
BRANCH  14  15
ATOM     15  C   UNL     1      -2.414   2.246  12.129  1.00  0.00     0.005 C 
BRANCH  15  16
ATOM     16  C   UNL     1      -3.281   1.550  11.111  1.00  0.00    -0.011 C 
ATOM     17  C   UNL     1      -2.924   0.322  10.555  1.00  0.00     0.003 C 
ATOM     18  C   UNL     1      -4.479   2.154  10.739  1.00  0.00     0.003 C 
ATOM     19  C   UNL     1      -3.739  -0.285   9.613  1.00  0.00     0.000 C 
ATOM     20  C   UNL     1      -5.301   1.545   9.798  1.00  0.00     0.000 C 
ATOM     21  C   UNL     1      -4.932   0.328   9.239  1.00  0.00     0.000 C 
ENDBRANCH  15  16
ENDBRANCH  14  15
ENDBRANCH   5  14
TORSDOF 5
